V -t * -v 1.0a5 -a 0
A -t * -n 1 -p 0 -o 0x7fffffff -c 30 -a 1
A -t * -h 1 -m 1073741823 -s 0
n -t * -a 4 -s 4 -S UP -v circle -c black -i black
n -t * -a 0 -s 0 -S UP -v circle -c black -i black
n -t * -a 5 -s 5 -S UP -v circle -c black -i black
n -t * -a 1 -s 1 -S UP -v circle -c black -i black
n -t * -a 6 -s 6 -S UP -v circle -c black -i black
n -t * -a 2 -s 2 -S UP -v circle -c black -i black
n -t * -a 3 -s 3 -S UP -v circle -c black -i black
l -t * -s 0 -d 1 -S UP -r 10000000 -D 0.01 -c black
l -t * -s 0 -d 6 -S UP -r 10000000 -D 0.01 -c black
l -t * -s 4 -d 3 -S UP -r 10000000 -D 0.01 -c black
l -t * -s 1 -d 3 -S UP -r 10000000 -D 0.01 -c black
l -t * -s 4 -d 2 -S UP -r 10000000 -D 0.01 -c black
l -t * -s 2 -d 5 -S UP -r 10000000 -D 0.01 -c black
l -t * -s 5 -d 3 -S UP -r 10000000 -D 0.01 -c black
l -t * -s 6 -d 4 -S UP -r 10000000 -D 0.01 -c black
+ -t 0.000169788487334637 -s 0 -d 1 -p rtProtoDV -e 7 -c 0 -i 2 -a 0 -x {0.2 1.2 -1 ------- null}
- -t 0.000169788487334637 -s 0 -d 1 -p rtProtoDV -e 7 -c 0 -i 2 -a 0 -x {0.2 1.2 -1 ------- null}
h -t 0.000169788487334637 -s 0 -d 1 -p rtProtoDV -e 7 -c 0 -i 2 -a 0 -x {0.2 1.2 -1 ------- null}
+ -t 0.000169788487334637 -s 0 -d 6 -p rtProtoDV -e 7 -c 0 -i 3 -a 0 -x {0.2 6.1 -1 ------- null}
- -t 0.000169788487334637 -s 0 -d 6 -p rtProtoDV -e 7 -c 0 -i 3 -a 0 -x {0.2 6.1 -1 ------- null}
h -t 0.000169788487334637 -s 0 -d 6 -p rtProtoDV -e 7 -c 0 -i 3 -a 0 -x {0.2 6.1 -1 ------- null}
+ -t 0.00710233021858257 -s 2 -d 4 -p rtProtoDV -e 7 -c 0 -i 5 -a 0 -x {2.1 4.1 -1 ------- null}
- -t 0.00710233021858257 -s 2 -d 4 -p rtProtoDV -e 7 -c 0 -i 5 -a 0 -x {2.1 4.1 -1 ------- null}
h -t 0.00710233021858257 -s 2 -d 4 -p rtProtoDV -e 7 -c 0 -i 5 -a 0 -x {2.1 4.1 -1 ------- null}
+ -t 0.00710233021858257 -s 2 -d 5 -p rtProtoDV -e 7 -c 0 -i 6 -a 0 -x {2.1 5.3 -1 ------- null}
- -t 0.00710233021858257 -s 2 -d 5 -p rtProtoDV -e 7 -c 0 -i 6 -a 0 -x {2.1 5.3 -1 ------- null}
h -t 0.00710233021858257 -s 2 -d 5 -p rtProtoDV -e 7 -c 0 -i 6 -a 0 -x {2.1 5.3 -1 ------- null}
r -t 0.0101753884873346 -s 0 -d 1 -p rtProtoDV -e 7 -c 0 -i 2 -a 0 -x {0.2 1.2 -1 ------- null}
+ -t 0.0101753884873346 -s 1 -d 0 -p rtProtoDV -e 7 -c 0 -i 8 -a 0 -x {1.2 0.2 -1 ------- null}
- -t 0.0101753884873346 -s 1 -d 0 -p rtProtoDV -e 7 -c 0 -i 8 -a 0 -x {1.2 0.2 -1 ------- null}
h -t 0.0101753884873346 -s 1 -d 0 -p rtProtoDV -e 7 -c 0 -i 8 -a 0 -x {1.2 0.2 -1 ------- null}
+ -t 0.0101753884873346 -s 1 -d 3 -p rtProtoDV -e 7 -c 0 -i 9 -a 0 -x {1.2 3.1 -1 ------- null}
- -t 0.0101753884873346 -s 1 -d 3 -p rtProtoDV -e 7 -c 0 -i 9 -a 0 -x {1.2 3.1 -1 ------- null}
h -t 0.0101753884873346 -s 1 -d 3 -p rtProtoDV -e 7 -c 0 -i 9 -a 0 -x {1.2 3.1 -1 ------- null}
r -t 0.0101753884873346 -s 0 -d 6 -p rtProtoDV -e 7 -c 0 -i 3 -a 0 -x {0.2 6.1 -1 ------- null}
+ -t 0.0101753884873346 -s 6 -d 0 -p rtProtoDV -e 7 -c 0 -i 10 -a 0 -x {6.1 0.2 -1 ------- null}
- -t 0.0101753884873346 -s 6 -d 0 -p rtProtoDV -e 7 -c 0 -i 10 -a 0 -x {6.1 0.2 -1 ------- null}
h -t 0.0101753884873346 -s 6 -d 0 -p rtProtoDV -e 7 -c 0 -i 10 -a 0 -x {6.1 0.2 -1 ------- null}
+ -t 0.0101753884873346 -s 6 -d 4 -p rtProtoDV -e 7 -c 0 -i 11 -a 0 -x {6.1 4.1 -1 ------- null}
- -t 0.0101753884873346 -s 6 -d 4 -p rtProtoDV -e 7 -c 0 -i 11 -a 0 -x {6.1 4.1 -1 ------- null}
h -t 0.0101753884873346 -s 6 -d 4 -p rtProtoDV -e 7 -c 0 -i 11 -a 0 -x {6.1 4.1 -1 ------- null}
r -t 0.0171079302185826 -s 2 -d 4 -p rtProtoDV -e 7 -c 0 -i 5 -a 0 -x {2.1 4.1 -1 ------- null}
+ -t 0.0171079302185826 -s 4 -d 2 -p rtProtoDV -e 7 -c 0 -i 14 -a 0 -x {4.1 2.1 -1 ------- null}
- -t 0.0171079302185826 -s 4 -d 2 -p rtProtoDV -e 7 -c 0 -i 14 -a 0 -x {4.1 2.1 -1 ------- null}
h -t 0.0171079302185826 -s 4 -d 2 -p rtProtoDV -e 7 -c 0 -i 14 -a 0 -x {4.1 2.1 -1 ------- null}
+ -t 0.0171079302185826 -s 4 -d 3 -p rtProtoDV -e 7 -c 0 -i 15 -a 0 -x {4.1 3.1 -1 ------- null}
- -t 0.0171079302185826 -s 4 -d 3 -p rtProtoDV -e 7 -c 0 -i 15 -a 0 -x {4.1 3.1 -1 ------- null}
h -t 0.0171079302185826 -s 4 -d 3 -p rtProtoDV -e 7 -c 0 -i 15 -a 0 -x {4.1 3.1 -1 ------- null}
+ -t 0.0171079302185826 -s 4 -d 6 -p rtProtoDV -e 7 -c 0 -i 16 -a 0 -x {4.1 6.1 -1 ------- null}
- -t 0.0171079302185826 -s 4 -d 6 -p rtProtoDV -e 7 -c 0 -i 16 -a 0 -x {4.1 6.1 -1 ------- null}
h -t 0.0171079302185826 -s 4 -d 6 -p rtProtoDV -e 7 -c 0 -i 16 -a 0 -x {4.1 6.1 -1 ------- null}
r -t 0.0171079302185826 -s 2 -d 5 -p rtProtoDV -e 7 -c 0 -i 6 -a 0 -x {2.1 5.3 -1 ------- null}
+ -t 0.0171079302185826 -s 5 -d 2 -p rtProtoDV -e 7 -c 0 -i 17 -a 0 -x {5.3 2.1 -1 ------- null}
- -t 0.0171079302185826 -s 5 -d 2 -p rtProtoDV -e 7 -c 0 -i 17 -a 0 -x {5.3 2.1 -1 ------- null}
h -t 0.0171079302185826 -s 5 -d 2 -p rtProtoDV -e 7 -c 0 -i 17 -a 0 -x {5.3 2.1 -1 ------- null}
+ -t 0.0171079302185826 -s 5 -d 3 -p rtProtoDV -e 7 -c 0 -i 18 -a 0 -x {5.3 3.1 -1 ------- null}
- -t 0.0171079302185826 -s 5 -d 3 -p rtProtoDV -e 7 -c 0 -i 18 -a 0 -x {5.3 3.1 -1 ------- null}
h -t 0.0171079302185826 -s 5 -d 3 -p rtProtoDV -e 7 -c 0 -i 18 -a 0 -x {5.3 3.1 -1 ------- null}
r -t 0.0201809884873346 -s 1 -d 0 -p rtProtoDV -e 7 -c 0 -i 8 -a 0 -x {1.2 0.2 -1 ------- null}
+ -t 0.0201809884873346 -s 0 -d 1 -p rtProtoDV -e 7 -c 0 -i 20 -a 0 -x {0.2 1.2 -1 ------- null}
- -t 0.0201809884873346 -s 0 -d 1 -p rtProtoDV -e 7 -c 0 -i 20 -a 0 -x {0.2 1.2 -1 ------- null}
h -t 0.0201809884873346 -s 0 -d 1 -p rtProtoDV -e 7 -c 0 -i 20 -a 0 -x {0.2 1.2 -1 ------- null}
+ -t 0.0201809884873346 -s 0 -d 6 -p rtProtoDV -e 7 -c 0 -i 21 -a 0 -x {0.2 6.1 -1 ------- null}
- -t 0.0201809884873346 -s 0 -d 6 -p rtProtoDV -e 7 -c 0 -i 21 -a 0 -x {0.2 6.1 -1 ------- null}
h -t 0.0201809884873346 -s 0 -d 6 -p rtProtoDV -e 7 -c 0 -i 21 -a 0 -x {0.2 6.1 -1 ------- null}
r -t 0.0201809884873346 -s 1 -d 3 -p rtProtoDV -e 7 -c 0 -i 9 -a 0 -x {1.2 3.1 -1 ------- null}
+ -t 0.0201809884873346 -s 3 -d 1 -p rtProtoDV -e 7 -c 0 -i 22 -a 0 -x {3.1 1.2 -1 ------- null}
- -t 0.0201809884873346 -s 3 -d 1 -p rtProtoDV -e 7 -c 0 -i 22 -a 0 -x {3.1 1.2 -1 ------- null}
h -t 0.0201809884873346 -s 3 -d 1 -p rtProtoDV -e 7 -c 0 -i 22 -a 0 -x {3.1 1.2 -1 ------- null}
+ -t 0.0201809884873346 -s 3 -d 4 -p rtProtoDV -e 7 -c 0 -i 23 -a 0 -x {3.1 4.1 -1 ------- null}
- -t 0.0201809884873346 -s 3 -d 4 -p rtProtoDV -e 7 -c 0 -i 23 -a 0 -x {3.1 4.1 -1 ------- null}
h -t 0.0201809884873346 -s 3 -d 4 -p rtProtoDV -e 7 -c 0 -i 23 -a 0 -x {3.1 4.1 -1 ------- null}
+ -t 0.0201809884873346 -s 3 -d 5 -p rtProtoDV -e 7 -c 0 -i 24 -a 0 -x {3.1 5.3 -1 ------- null}
- -t 0.0201809884873346 -s 3 -d 5 -p rtProtoDV -e 7 -c 0 -i 24 -a 0 -x {3.1 5.3 -1 ------- null}
h -t 0.0201809884873346 -s 3 -d 5 -p rtProtoDV -e 7 -c 0 -i 24 -a 0 -x {3.1 5.3 -1 ------- null}
r -t 0.0201809884873346 -s 6 -d 0 -p rtProtoDV -e 7 -c 0 -i 10 -a 0 -x {6.1 0.2 -1 ------- null}
+ -t 0.0201809884873346 -s 0 -d 1 -p rtProtoDV -e 7 -c 0 -i 25 -a 0 -x {0.2 1.2 -1 ------- null}
+ -t 0.0201809884873346 -s 0 -d 6 -p rtProtoDV -e 7 -c 0 -i 26 -a 0 -x {0.2 6.1 -1 ------- null}
r -t 0.0201809884873346 -s 6 -d 4 -p rtProtoDV -e 7 -c 0 -i 11 -a 0 -x {6.1 4.1 -1 ------- null}
+ -t 0.0201809884873346 -s 4 -d 2 -p rtProtoDV -e 7 -c 0 -i 27 -a 0 -x {4.1 2.1 -1 ------- null}
- -t 0.0201809884873346 -s 4 -d 2 -p rtProtoDV -e 7 -c 0 -i 27 -a 0 -x {4.1 2.1 -1 ------- null}
h -t 0.0201809884873346 -s 4 -d 2 -p rtProtoDV -e 7 -c 0 -i 27 -a 0 -x {4.1 2.1 -1 ------- null}
+ -t 0.0201809884873346 -s 4 -d 3 -p rtProtoDV -e 7 -c 0 -i 28 -a 0 -x {4.1 3.1 -1 ------- null}
- -t 0.0201809884873346 -s 4 -d 3 -p rtProtoDV -e 7 -c 0 -i 28 -a 0 -x {4.1 3.1 -1 ------- null}
h -t 0.0201809884873346 -s 4 -d 3 -p rtProtoDV -e 7 -c 0 -i 28 -a 0 -x {4.1 3.1 -1 ------- null}
+ -t 0.0201809884873346 -s 4 -d 6 -p rtProtoDV -e 7 -c 0 -i 29 -a 0 -x {4.1 6.1 -1 ------- null}
- -t 0.0201809884873346 -s 4 -d 6 -p rtProtoDV -e 7 -c 0 -i 29 -a 0 -x {4.1 6.1 -1 ------- null}
h -t 0.0201809884873346 -s 4 -d 6 -p rtProtoDV -e 7 -c 0 -i 29 -a 0 -x {4.1 6.1 -1 ------- null}
- -t 0.0201865884873346 -s 0 -d 1 -p rtProtoDV -e 7 -c 0 -i 25 -a 0 -x {0.2 1.2 -1 ------- null}
h -t 0.0201865884873346 -s 0 -d 1 -p rtProtoDV -e 7 -c 0 -i 25 -a 0 -x {0.2 1.2 -1 ------- null}
- -t 0.0201865884873346 -s 0 -d 6 -p rtProtoDV -e 7 -c 0 -i 26 -a 0 -x {0.2 6.1 -1 ------- null}
h -t 0.0201865884873346 -s 0 -d 6 -p rtProtoDV -e 7 -c 0 -i 26 -a 0 -x {0.2 6.1 -1 ------- null}
r -t 0.0271135302185826 -s 4 -d 2 -p rtProtoDV -e 7 -c 0 -i 14 -a 0 -x {4.1 2.1 -1 ------- null}
+ -t 0.0271135302185826 -s 2 -d 4 -p rtProtoDV -e 7 -c 0 -i 32 -a 0 -x {2.1 4.1 -1 ------- null}
- -t 0.0271135302185826 -s 2 -d 4 -p rtProtoDV -e 7 -c 0 -i 32 -a 0 -x {2.1 4.1 -1 ------- null}
h -t 0.0271135302185826 -s 2 -d 4 -p rtProtoDV -e 7 -c 0 -i 32 -a 0 -x {2.1 4.1 -1 ------- null}
+ -t 0.0271135302185826 -s 2 -d 5 -p rtProtoDV -e 7 -c 0 -i 33 -a 0 -x {2.1 5.3 -1 ------- null}
- -t 0.0271135302185826 -s 2 -d 5 -p rtProtoDV -e 7 -c 0 -i 33 -a 0 -x {2.1 5.3 -1 ------- null}
h -t 0.0271135302185826 -s 2 -d 5 -p rtProtoDV -e 7 -c 0 -i 33 -a 0 -x {2.1 5.3 -1 ------- null}
r -t 0.0271135302185826 -s 4 -d 3 -p rtProtoDV -e 7 -c 0 -i 15 -a 0 -x {4.1 3.1 -1 ------- null}
+ -t 0.0271135302185826 -s 3 -d 1 -p rtProtoDV -e 7 -c 0 -i 34 -a 0 -x {3.1 1.2 -1 ------- null}
- -t 0.0271135302185826 -s 3 -d 1 -p rtProtoDV -e 7 -c 0 -i 34 -a 0 -x {3.1 1.2 -1 ------- null}
h -t 0.0271135302185826 -s 3 -d 1 -p rtProtoDV -e 7 -c 0 -i 34 -a 0 -x {3.1 1.2 -1 ------- null}
+ -t 0.0271135302185826 -s 3 -d 4 -p rtProtoDV -e 7 -c 0 -i 35 -a 0 -x {3.1 4.1 -1 ------- null}
- -t 0.0271135302185826 -s 3 -d 4 -p rtProtoDV -e 7 -c 0 -i 35 -a 0 -x {3.1 4.1 -1 ------- null}
h -t 0.0271135302185826 -s 3 -d 4 -p rtProtoDV -e 7 -c 0 -i 35 -a 0 -x {3.1 4.1 -1 ------- null}
+ -t 0.0271135302185826 -s 3 -d 5 -p rtProtoDV -e 7 -c 0 -i 36 -a 0 -x {3.1 5.3 -1 ------- null}
- -t 0.0271135302185826 -s 3 -d 5 -p rtProtoDV -e 7 -c 0 -i 36 -a 0 -x {3.1 5.3 -1 ------- null}
h -t 0.0271135302185826 -s 3 -d 5 -p rtProtoDV -e 7 -c 0 -i 36 -a 0 -x {3.1 5.3 -1 ------- null}
r -t 0.0271135302185826 -s 4 -d 6 -p rtProtoDV -e 7 -c 0 -i 16 -a 0 -x {4.1 6.1 -1 ------- null}
+ -t 0.0271135302185826 -s 6 -d 0 -p rtProtoDV -e 7 -c 0 -i 37 -a 0 -x {6.1 0.2 -1 ------- null}
- -t 0.0271135302185826 -s 6 -d 0 -p rtProtoDV -e 7 -c 0 -i 37 -a 0 -x {6.1 0.2 -1 ------- null}
h -t 0.0271135302185826 -s 6 -d 0 -p rtProtoDV -e 7 -c 0 -i 37 -a 0 -x {6.1 0.2 -1 ------- null}
+ -t 0.0271135302185826 -s 6 -d 4 -p rtProtoDV -e 7 -c 0 -i 38 -a 0 -x {6.1 4.1 -1 ------- null}
- -t 0.0271135302185826 -s 6 -d 4 -p rtProtoDV -e 7 -c 0 -i 38 -a 0 -x {6.1 4.1 -1 ------- null}
h -t 0.0271135302185826 -s 6 -d 4 -p rtProtoDV -e 7 -c 0 -i 38 -a 0 -x {6.1 4.1 -1 ------- null}
r -t 0.0271135302185826 -s 5 -d 2 -p rtProtoDV -e 7 -c 0 -i 17 -a 0 -x {5.3 2.1 -1 ------- null}
r -t 0.0271135302185826 -s 5 -d 3 -p rtProtoDV -e 7 -c 0 -i 18 -a 0 -x {5.3 3.1 -1 ------- null}
r -t 0.0301865884873346 -s 0 -d 1 -p rtProtoDV -e 7 -c 0 -i 20 -a 0 -x {0.2 1.2 -1 ------- null}
r -t 0.0301865884873346 -s 0 -d 6 -p rtProtoDV -e 7 -c 0 -i 21 -a 0 -x {0.2 6.1 -1 ------- null}
r -t 0.0301865884873346 -s 3 -d 1 -p rtProtoDV -e 7 -c 0 -i 22 -a 0 -x {3.1 1.2 -1 ------- null}
+ -t 0.0301865884873346 -s 1 -d 0 -p rtProtoDV -e 7 -c 0 -i 40 -a 0 -x {1.2 0.2 -1 ------- null}
- -t 0.0301865884873346 -s 1 -d 0 -p rtProtoDV -e 7 -c 0 -i 40 -a 0 -x {1.2 0.2 -1 ------- null}
h -t 0.0301865884873346 -s 1 -d 0 -p rtProtoDV -e 7 -c 0 -i 40 -a 0 -x {1.2 0.2 -1 ------- null}
+ -t 0.0301865884873346 -s 1 -d 3 -p rtProtoDV -e 7 -c 0 -i 41 -a 0 -x {1.2 3.1 -1 ------- null}
- -t 0.0301865884873346 -s 1 -d 3 -p rtProtoDV -e 7 -c 0 -i 41 -a 0 -x {1.2 3.1 -1 ------- null}
h -t 0.0301865884873346 -s 1 -d 3 -p rtProtoDV -e 7 -c 0 -i 41 -a 0 -x {1.2 3.1 -1 ------- null}
r -t 0.0301865884873346 -s 3 -d 4 -p rtProtoDV -e 7 -c 0 -i 23 -a 0 -x {3.1 4.1 -1 ------- null}
+ -t 0.0301865884873346 -s 4 -d 2 -p rtProtoDV -e 7 -c 0 -i 42 -a 0 -x {4.1 2.1 -1 ------- null}
- -t 0.0301865884873346 -s 4 -d 2 -p rtProtoDV -e 7 -c 0 -i 42 -a 0 -x {4.1 2.1 -1 ------- null}
h -t 0.0301865884873346 -s 4 -d 2 -p rtProtoDV -e 7 -c 0 -i 42 -a 0 -x {4.1 2.1 -1 ------- null}
+ -t 0.0301865884873346 -s 4 -d 3 -p rtProtoDV -e 7 -c 0 -i 43 -a 0 -x {4.1 3.1 -1 ------- null}
- -t 0.0301865884873346 -s 4 -d 3 -p rtProtoDV -e 7 -c 0 -i 43 -a 0 -x {4.1 3.1 -1 ------- null}
h -t 0.0301865884873346 -s 4 -d 3 -p rtProtoDV -e 7 -c 0 -i 43 -a 0 -x {4.1 3.1 -1 ------- null}
+ -t 0.0301865884873346 -s 4 -d 6 -p rtProtoDV -e 7 -c 0 -i 44 -a 0 -x {4.1 6.1 -1 ------- null}
- -t 0.0301865884873346 -s 4 -d 6 -p rtProtoDV -e 7 -c 0 -i 44 -a 0 -x {4.1 6.1 -1 ------- null}
h -t 0.0301865884873346 -s 4 -d 6 -p rtProtoDV -e 7 -c 0 -i 44 -a 0 -x {4.1 6.1 -1 ------- null}
r -t 0.0301865884873346 -s 3 -d 5 -p rtProtoDV -e 7 -c 0 -i 24 -a 0 -x {3.1 5.3 -1 ------- null}
+ -t 0.0301865884873346 -s 5 -d 2 -p rtProtoDV -e 7 -c 0 -i 45 -a 0 -x {5.3 2.1 -1 ------- null}
- -t 0.0301865884873346 -s 5 -d 2 -p rtProtoDV -e 7 -c 0 -i 45 -a 0 -x {5.3 2.1 -1 ------- null}
h -t 0.0301865884873346 -s 5 -d 2 -p rtProtoDV -e 7 -c 0 -i 45 -a 0 -x {5.3 2.1 -1 ------- null}
+ -t 0.0301865884873346 -s 5 -d 3 -p rtProtoDV -e 7 -c 0 -i 46 -a 0 -x {5.3 3.1 -1 ------- null}
- -t 0.0301865884873346 -s 5 -d 3 -p rtProtoDV -e 7 -c 0 -i 46 -a 0 -x {5.3 3.1 -1 ------- null}
h -t 0.0301865884873346 -s 5 -d 3 -p rtProtoDV -e 7 -c 0 -i 46 -a 0 -x {5.3 3.1 -1 ------- null}
r -t 0.0301865884873346 -s 4 -d 2 -p rtProtoDV -e 7 -c 0 -i 27 -a 0 -x {4.1 2.1 -1 ------- null}
+ -t 0.0301865884873346 -s 2 -d 4 -p rtProtoDV -e 7 -c 0 -i 47 -a 0 -x {2.1 4.1 -1 ------- null}
- -t 0.0301865884873346 -s 2 -d 4 -p rtProtoDV -e 7 -c 0 -i 47 -a 0 -x {2.1 4.1 -1 ------- null}
h -t 0.0301865884873346 -s 2 -d 4 -p rtProtoDV -e 7 -c 0 -i 47 -a 0 -x {2.1 4.1 -1 ------- null}
+ -t 0.0301865884873346 -s 2 -d 5 -p rtProtoDV -e 7 -c 0 -i 48 -a 0 -x {2.1 5.3 -1 ------- null}
- -t 0.0301865884873346 -s 2 -d 5 -p rtProtoDV -e 7 -c 0 -i 48 -a 0 -x {2.1 5.3 -1 ------- null}
h -t 0.0301865884873346 -s 2 -d 5 -p rtProtoDV -e 7 -c 0 -i 48 -a 0 -x {2.1 5.3 -1 ------- null}
r -t 0.0301865884873346 -s 4 -d 3 -p rtProtoDV -e 7 -c 0 -i 28 -a 0 -x {4.1 3.1 -1 ------- null}
r -t 0.0301865884873346 -s 4 -d 6 -p rtProtoDV -e 7 -c 0 -i 29 -a 0 -x {4.1 6.1 -1 ------- null}
r -t 0.0301921884873346 -s 0 -d 1 -p rtProtoDV -e 7 -c 0 -i 25 -a 0 -x {0.2 1.2 -1 ------- null}
r -t 0.0301921884873346 -s 0 -d 6 -p rtProtoDV -e 7 -c 0 -i 26 -a 0 -x {0.2 6.1 -1 ------- null}
+ -t 0.03375 -s 1 -d 3 -p cbr -e 210 -c 0 -i 49 -a 0 -x {1.0 5.1 9 ------- null}
- -t 0.03375 -s 1 -d 3 -p cbr -e 210 -c 0 -i 49 -a 0 -x {1.0 5.1 9 ------- null}
h -t 0.03375 -s 1 -d 3 -p cbr -e 210 -c 0 -i 49 -a 0 -x {1.0 5.1 -1 ------- null}
r -t 0.0371191302185826 -s 2 -d 4 -p rtProtoDV -e 7 -c 0 -i 32 -a 0 -x {2.1 4.1 -1 ------- null}
r -t 0.0371191302185826 -s 2 -d 5 -p rtProtoDV -e 7 -c 0 -i 33 -a 0 -x {2.1 5.3 -1 ------- null}
+ -t 0.0371191302185826 -s 5 -d 2 -p rtProtoDV -e 7 -c 0 -i 50 -a 0 -x {5.3 2.1 -1 ------- null}
- -t 0.0371191302185826 -s 5 -d 2 -p rtProtoDV -e 7 -c 0 -i 50 -a 0 -x {5.3 2.1 -1 ------- null}
h -t 0.0371191302185826 -s 5 -d 2 -p rtProtoDV -e 7 -c 0 -i 50 -a 0 -x {5.3 2.1 -1 ------- null}
+ -t 0.0371191302185826 -s 5 -d 3 -p rtProtoDV -e 7 -c 0 -i 51 -a 0 -x {5.3 3.1 -1 ------- null}
- -t 0.0371191302185826 -s 5 -d 3 -p rtProtoDV -e 7 -c 0 -i 51 -a 0 -x {5.3 3.1 -1 ------- null}
h -t 0.0371191302185826 -s 5 -d 3 -p rtProtoDV -e 7 -c 0 -i 51 -a 0 -x {5.3 3.1 -1 ------- null}
r -t 0.0371191302185826 -s 3 -d 1 -p rtProtoDV -e 7 -c 0 -i 34 -a 0 -x {3.1 1.2 -1 ------- null}
+ -t 0.0371191302185826 -s 1 -d 0 -p rtProtoDV -e 7 -c 0 -i 52 -a 0 -x {1.2 0.2 -1 ------- null}
- -t 0.0371191302185826 -s 1 -d 0 -p rtProtoDV -e 7 -c 0 -i 52 -a 0 -x {1.2 0.2 -1 ------- null}
h -t 0.0371191302185826 -s 1 -d 0 -p rtProtoDV -e 7 -c 0 -i 52 -a 0 -x {1.2 0.2 -1 ------- null}
+ -t 0.0371191302185826 -s 1 -d 3 -p rtProtoDV -e 7 -c 0 -i 53 -a 0 -x {1.2 3.1 -1 ------- null}
- -t 0.0371191302185826 -s 1 -d 3 -p rtProtoDV -e 7 -c 0 -i 53 -a 0 -x {1.2 3.1 -1 ------- null}
h -t 0.0371191302185826 -s 1 -d 3 -p rtProtoDV -e 7 -c 0 -i 53 -a 0 -x {1.2 3.1 -1 ------- null}
r -t 0.0371191302185826 -s 3 -d 4 -p rtProtoDV -e 7 -c 0 -i 35 -a 0 -x {3.1 4.1 -1 ------- null}
r -t 0.0371191302185826 -s 3 -d 5 -p rtProtoDV -e 7 -c 0 -i 36 -a 0 -x {3.1 5.3 -1 ------- null}
r -t 0.0371191302185826 -s 6 -d 0 -p rtProtoDV -e 7 -c 0 -i 37 -a 0 -x {6.1 0.2 -1 ------- null}
+ -t 0.0371191302185826 -s 0 -d 1 -p rtProtoDV -e 7 -c 0 -i 54 -a 0 -x {0.2 1.2 -1 ------- null}
- -t 0.0371191302185826 -s 0 -d 1 -p rtProtoDV -e 7 -c 0 -i 54 -a 0 -x {0.2 1.2 -1 ------- null}
h -t 0.0371191302185826 -s 0 -d 1 -p rtProtoDV -e 7 -c 0 -i 54 -a 0 -x {0.2 1.2 -1 ------- null}
+ -t 0.0371191302185826 -s 0 -d 6 -p rtProtoDV -e 7 -c 0 -i 55 -a 0 -x {0.2 6.1 -1 ------- null}
- -t 0.0371191302185826 -s 0 -d 6 -p rtProtoDV -e 7 -c 0 -i 55 -a 0 -x {0.2 6.1 -1 ------- null}
h -t 0.0371191302185826 -s 0 -d 6 -p rtProtoDV -e 7 -c 0 -i 55 -a 0 -x {0.2 6.1 -1 ------- null}
r -t 0.0371191302185826 -s 6 -d 4 -p rtProtoDV -e 7 -c 0 -i 38 -a 0 -x {6.1 4.1 -1 ------- null}
+ -t 0.0375 -s 1 -d 3 -p cbr -e 210 -c 0 -i 56 -a 0 -x {1.0 5.1 10 ------- null}
- -t 0.0375 -s 1 -d 3 -p cbr -e 210 -c 0 -i 56 -a 0 -x {1.0 5.1 10 ------- null}
h -t 0.0375 -s 1 -d 3 -p cbr -e 210 -c 0 -i 56 -a 0 -x {1.0 5.1 -1 ------- null}
r -t 0.0401921884873346 -s 1 -d 0 -p rtProtoDV -e 7 -c 0 -i 40 -a 0 -x {1.2 0.2 -1 ------- null}
+ -t 0.0401921884873346 -s 0 -d 1 -p rtProtoDV -e 7 -c 0 -i 57 -a 0 -x {0.2 1.2 -1 ------- null}
- -t 0.0401921884873346 -s 0 -d 1 -p rtProtoDV -e 7 -c 0 -i 57 -a 0 -x {0.2 1.2 -1 ------- null}
h -t 0.0401921884873346 -s 0 -d 1 -p rtProtoDV -e 7 -c 0 -i 57 -a 0 -x {0.2 1.2 -1 ------- null}
+ -t 0.0401921884873346 -s 0 -d 6 -p rtProtoDV -e 7 -c 0 -i 58 -a 0 -x {0.2 6.1 -1 ------- null}
- -t 0.0401921884873346 -s 0 -d 6 -p rtProtoDV -e 7 -c 0 -i 58 -a 0 -x {0.2 6.1 -1 ------- null}
h -t 0.0401921884873346 -s 0 -d 6 -p rtProtoDV -e 7 -c 0 -i 58 -a 0 -x {0.2 6.1 -1 ------- null}
r -t 0.0401921884873346 -s 1 -d 3 -p rtProtoDV -e 7 -c 0 -i 41 -a 0 -x {1.2 3.1 -1 ------- null}
r -t 0.0401921884873346 -s 4 -d 2 -p rtProtoDV -e 7 -c 0 -i 42 -a 0 -x {4.1 2.1 -1 ------- null}
+ -t 0.0401921884873346 -s 2 -d 4 -p rtProtoDV -e 7 -c 0 -i 59 -a 0 -x {2.1 4.1 -1 ------- null}
- -t 0.0401921884873346 -s 2 -d 4 -p rtProtoDV -e 7 -c 0 -i 59 -a 0 -x {2.1 4.1 -1 ------- null}
h -t 0.0401921884873346 -s 2 -d 4 -p rtProtoDV -e 7 -c 0 -i 59 -a 0 -x {2.1 4.1 -1 ------- null}
+ -t 0.0401921884873346 -s 2 -d 5 -p rtProtoDV -e 7 -c 0 -i 60 -a 0 -x {2.1 5.3 -1 ------- null}
- -t 0.0401921884873346 -s 2 -d 5 -p rtProtoDV -e 7 -c 0 -i 60 -a 0 -x {2.1 5.3 -1 ------- null}
h -t 0.0401921884873346 -s 2 -d 5 -p rtProtoDV -e 7 -c 0 -i 60 -a 0 -x {2.1 5.3 -1 ------- null}
r -t 0.0401921884873346 -s 4 -d 3 -p rtProtoDV -e 7 -c 0 -i 43 -a 0 -x {4.1 3.1 -1 ------- null}
r -t 0.0401921884873346 -s 4 -d 6 -p rtProtoDV -e 7 -c 0 -i 44 -a 0 -x {4.1 6.1 -1 ------- null}
r -t 0.0401921884873346 -s 5 -d 2 -p rtProtoDV -e 7 -c 0 -i 45 -a 0 -x {5.3 2.1 -1 ------- null}
r -t 0.0401921884873346 -s 5 -d 3 -p rtProtoDV -e 7 -c 0 -i 46 -a 0 -x {5.3 3.1 -1 ------- null}
r -t 0.0401921884873346 -s 2 -d 4 -p rtProtoDV -e 7 -c 0 -i 47 -a 0 -x {2.1 4.1 -1 ------- null}
r -t 0.0401921884873346 -s 2 -d 5 -p rtProtoDV -e 7 -c 0 -i 48 -a 0 -x {2.1 5.3 -1 ------- null}
+ -t 0.04125 -s 1 -d 3 -p cbr -e 210 -c 0 -i 61 -a 0 -x {1.0 5.1 11 ------- null}
- -t 0.04125 -s 1 -d 3 -p cbr -e 210 -c 0 -i 61 -a 0 -x {1.0 5.1 11 ------- null}
h -t 0.04125 -s 1 -d 3 -p cbr -e 210 -c 0 -i 61 -a 0 -x {1.0 5.1 -1 ------- null}
r -t 0.043918 -s 1 -d 3 -p cbr -e 210 -c 0 -i 49 -a 0 -x {1.0 5.1 9 ------- null}
+ -t 0.043918 -s 3 -d 5 -p cbr -e 210 -c 0 -i 49 -a 0 -x {1.0 5.1 9 ------- null}
- -t 0.043918 -s 3 -d 5 -p cbr -e 210 -c 0 -i 49 -a 0 -x {1.0 5.1 9 ------- null}
h -t 0.043918 -s 3 -d 5 -p cbr -e 210 -c 0 -i 49 -a 0 -x {1.0 5.1 -1 ------- null}
+ -t 0.04406133552271 -s 3 -d 1 -p rtProtoDV -e 7 -c 0 -i 62 -a 0 -x {3.1 1.2 -1 ------- null}
- -t 0.04406133552271 -s 3 -d 1 -p rtProtoDV -e 7 -c 0 -i 62 -a 0 -x {3.1 1.2 -1 ------- null}
h -t 0.04406133552271 -s 3 -d 1 -p rtProtoDV -e 7 -c 0 -i 62 -a 0 -x {3.1 1.2 -1 ------- null}
+ -t 0.04406133552271 -s 3 -d 4 -p rtProtoDV -e 7 -c 0 -i 63 -a 0 -x {3.1 4.1 -1 ------- null}
- -t 0.04406133552271 -s 3 -d 4 -p rtProtoDV -e 7 -c 0 -i 63 -a 0 -x {3.1 4.1 -1 ------- null}
h -t 0.04406133552271 -s 3 -d 4 -p rtProtoDV -e 7 -c 0 -i 63 -a 0 -x {3.1 4.1 -1 ------- null}
+ -t 0.04406133552271 -s 3 -d 5 -p rtProtoDV -e 7 -c 0 -i 64 -a 0 -x {3.1 5.3 -1 ------- null}
- -t 0.044086 -s 3 -d 5 -p rtProtoDV -e 7 -c 0 -i 64 -a 0 -x {3.1 5.3 -1 ------- null}
h -t 0.044086 -s 3 -d 5 -p rtProtoDV -e 7 -c 0 -i 64 -a 0 -x {3.1 5.3 -1 ------- null}
+ -t 0.045 -s 1 -d 3 -p cbr -e 210 -c 0 -i 65 -a 0 -x {1.0 5.1 12 ------- null}
- -t 0.045 -s 1 -d 3 -p cbr -e 210 -c 0 -i 65 -a 0 -x {1.0 5.1 12 ------- null}
h -t 0.045 -s 1 -d 3 -p cbr -e 210 -c 0 -i 65 -a 0 -x {1.0 5.1 -1 ------- null}
r -t 0.0471247302185826 -s 5 -d 2 -p rtProtoDV -e 7 -c 0 -i 50 -a 0 -x {5.3 2.1 -1 ------- null}
r -t 0.0471247302185826 -s 5 -d 3 -p rtProtoDV -e 7 -c 0 -i 51 -a 0 -x {5.3 3.1 -1 ------- null}
r -t 0.0471247302185826 -s 1 -d 0 -p rtProtoDV -e 7 -c 0 -i 52 -a 0 -x {1.2 0.2 -1 ------- null}
r -t 0.0471247302185826 -s 1 -d 3 -p rtProtoDV -e 7 -c 0 -i 53 -a 0 -x {1.2 3.1 -1 ------- null}
r -t 0.0471247302185826 -s 0 -d 1 -p rtProtoDV -e 7 -c 0 -i 54 -a 0 -x {0.2 1.2 -1 ------- null}
r -t 0.0471247302185826 -s 0 -d 6 -p rtProtoDV -e 7 -c 0 -i 55 -a 0 -x {0.2 6.1 -1 ------- null}
r -t 0.047668 -s 1 -d 3 -p cbr -e 210 -c 0 -i 56 -a 0 -x {1.0 5.1 10 ------- null}
+ -t 0.047668 -s 3 -d 5 -p cbr -e 210 -c 0 -i 56 -a 0 -x {1.0 5.1 10 ------- null}
- -t 0.047668 -s 3 -d 5 -p cbr -e 210 -c 0 -i 56 -a 0 -x {1.0 5.1 10 ------- null}
h -t 0.047668 -s 3 -d 5 -p cbr -e 210 -c 0 -i 56 -a 0 -x {1.0 5.1 -1 ------- null}
+ -t 0.04875 -s 1 -d 3 -p cbr -e 210 -c 0 -i 66 -a 0 -x {1.0 5.1 13 ------- null}
- -t 0.04875 -s 1 -d 3 -p cbr -e 210 -c 0 -i 66 -a 0 -x {1.0 5.1 13 ------- null}
h -t 0.04875 -s 1 -d 3 -p cbr -e 210 -c 0 -i 66 -a 0 -x {1.0 5.1 -1 ------- null}
r -t 0.0501977884873346 -s 0 -d 1 -p rtProtoDV -e 7 -c 0 -i 57 -a 0 -x {0.2 1.2 -1 ------- null}
r -t 0.0501977884873346 -s 0 -d 6 -p rtProtoDV -e 7 -c 0 -i 58 -a 0 -x {0.2 6.1 -1 ------- null}
r -t 0.0501977884873346 -s 2 -d 4 -p rtProtoDV -e 7 -c 0 -i 59 -a 0 -x {2.1 4.1 -1 ------- null}
r -t 0.0501977884873346 -s 2 -d 5 -p rtProtoDV -e 7 -c 0 -i 60 -a 0 -x {2.1 5.3 -1 ------- null}
r -t 0.051418 -s 1 -d 3 -p cbr -e 210 -c 0 -i 61 -a 0 -x {1.0 5.1 11 ------- null}
+ -t 0.051418 -s 3 -d 5 -p cbr -e 210 -c 0 -i 61 -a 0 -x {1.0 5.1 11 ------- null}
- -t 0.051418 -s 3 -d 5 -p cbr -e 210 -c 0 -i 61 -a 0 -x {1.0 5.1 11 ------- null}
h -t 0.051418 -s 3 -d 5 -p cbr -e 210 -c 0 -i 61 -a 0 -x {1.0 5.1 -1 ------- null}
+ -t 0.0525 -s 1 -d 3 -p cbr -e 210 -c 0 -i 67 -a 0 -x {1.0 5.1 14 ------- null}
- -t 0.0525 -s 1 -d 3 -p cbr -e 210 -c 0 -i 67 -a 0 -x {1.0 5.1 14 ------- null}
h -t 0.0525 -s 1 -d 3 -p cbr -e 210 -c 0 -i 67 -a 0 -x {1.0 5.1 -1 ------- null}
r -t 0.05406693552271 -s 3 -d 1 -p rtProtoDV -e 7 -c 0 -i 62 -a 0 -x {3.1 1.2 -1 ------- null}
r -t 0.05406693552271 -s 3 -d 4 -p rtProtoDV -e 7 -c 0 -i 63 -a 0 -x {3.1 4.1 -1 ------- null}
r -t 0.054086 -s 3 -d 5 -p cbr -e 210 -c 0 -i 49 -a 0 -x {1.0 5.1 9 ------- null}
r -t 0.0540916 -s 3 -d 5 -p rtProtoDV -e 7 -c 0 -i 64 -a 0 -x {3.1 5.3 -1 ------- null}
r -t 0.055168 -s 1 -d 3 -p cbr -e 210 -c 0 -i 65 -a 0 -x {1.0 5.1 12 ------- null}
+ -t 0.055168 -s 3 -d 5 -p cbr -e 210 -c 0 -i 65 -a 0 -x {1.0 5.1 12 ------- null}
- -t 0.055168 -s 3 -d 5 -p cbr -e 210 -c 0 -i 65 -a 0 -x {1.0 5.1 12 ------- null}
h -t 0.055168 -s 3 -d 5 -p cbr -e 210 -c 0 -i 65 -a 0 -x {1.0 5.1 -1 ------- null}
+ -t 0.05625 -s 1 -d 3 -p cbr -e 210 -c 0 -i 68 -a 0 -x {1.0 5.1 15 ------- null}
- -t 0.05625 -s 1 -d 3 -p cbr -e 210 -c 0 -i 68 -a 0 -x {1.0 5.1 15 ------- null}
h -t 0.05625 -s 1 -d 3 -p cbr -e 210 -c 0 -i 68 -a 0 -x {1.0 5.1 -1 ------- null}
r -t 0.057836 -s 3 -d 5 -p cbr -e 210 -c 0 -i 56 -a 0 -x {1.0 5.1 10 ------- null}
r -t 0.058918 -s 1 -d 3 -p cbr -e 210 -c 0 -i 66 -a 0 -x {1.0 5.1 13 ------- null}
+ -t 0.058918 -s 3 -d 5 -p cbr -e 210 -c 0 -i 66 -a 0 -x {1.0 5.1 13 ------- null}
- -t 0.058918 -s 3 -d 5 -p cbr -e 210 -c 0 -i 66 -a 0 -x {1.0 5.1 13 ------- null}
h -t 0.058918 -s 3 -d 5 -p cbr -e 210 -c 0 -i 66 -a 0 -x {1.0 5.1 -1 ------- null}
+ -t 0.06 -s 1 -d 3 -p cbr -e 210 -c 0 -i 69 -a 0 -x {1.0 5.1 16 ------- null}
- -t 0.06 -s 1 -d 3 -p cbr -e 210 -c 0 -i 69 -a 0 -x {1.0 5.1 16 ------- null}
h -t 0.06 -s 1 -d 3 -p cbr -e 210 -c 0 -i 69 -a 0 -x {1.0 5.1 -1 ------- null}
r -t 0.061586 -s 3 -d 5 -p cbr -e 210 -c 0 -i 61 -a 0 -x {1.0 5.1 11 ------- null}
r -t 0.062668 -s 1 -d 3 -p cbr -e 210 -c 0 -i 67 -a 0 -x {1.0 5.1 14 ------- null}
+ -t 0.062668 -s 3 -d 5 -p cbr -e 210 -c 0 -i 67 -a 0 -x {1.0 5.1 14 ------- null}
- -t 0.062668 -s 3 -d 5 -p cbr -e 210 -c 0 -i 67 -a 0 -x {1.0 5.1 14 ------- null}
h -t 0.062668 -s 3 -d 5 -p cbr -e 210 -c 0 -i 67 -a 0 -x {1.0 5.1 -1 ------- null}
+ -t 0.06375 -s 1 -d 3 -p cbr -e 210 -c 0 -i 70 -a 0 -x {1.0 5.1 17 ------- null}
- -t 0.06375 -s 1 -d 3 -p cbr -e 210 -c 0 -i 70 -a 0 -x {1.0 5.1 17 ------- null}
h -t 0.06375 -s 1 -d 3 -p cbr -e 210 -c 0 -i 70 -a 0 -x {1.0 5.1 -1 ------- null}
r -t 0.065336 -s 3 -d 5 -p cbr -e 210 -c 0 -i 65 -a 0 -x {1.0 5.1 12 ------- null}
r -t 0.066418 -s 1 -d 3 -p cbr -e 210 -c 0 -i 68 -a 0 -x {1.0 5.1 15 ------- null}
+ -t 0.066418 -s 3 -d 5 -p cbr -e 210 -c 0 -i 68 -a 0 -x {1.0 5.1 15 ------- null}
- -t 0.066418 -s 3 -d 5 -p cbr -e 210 -c 0 -i 68 -a 0 -x {1.0 5.1 15 ------- null}
h -t 0.066418 -s 3 -d 5 -p cbr -e 210 -c 0 -i 68 -a 0 -x {1.0 5.1 -1 ------- null}
+ -t 0.0675 -s 1 -d 3 -p cbr -e 210 -c 0 -i 71 -a 0 -x {1.0 5.1 18 ------- null}
- -t 0.0675 -s 1 -d 3 -p cbr -e 210 -c 0 -i 71 -a 0 -x {1.0 5.1 18 ------- null}
h -t 0.0675 -s 1 -d 3 -p cbr -e 210 -c 0 -i 71 -a 0 -x {1.0 5.1 -1 ------- null}
r -t 0.069086 -s 3 -d 5 -p cbr -e 210 -c 0 -i 66 -a 0 -x {1.0 5.1 13 ------- null}
r -t 0.070168 -s 1 -d 3 -p cbr -e 210 -c 0 -i 69 -a 0 -x {1.0 5.1 16 ------- null}
+ -t 0.070168 -s 3 -d 5 -p cbr -e 210 -c 0 -i 69 -a 0 -x {1.0 5.1 16 ------- null}
- -t 0.070168 -s 3 -d 5 -p cbr -e 210 -c 0 -i 69 -a 0 -x {1.0 5.1 16 ------- null}
h -t 0.070168 -s 3 -d 5 -p cbr -e 210 -c 0 -i 69 -a 0 -x {1.0 5.1 -1 ------- null}
+ -t 0.07125 -s 1 -d 3 -p cbr -e 210 -c 0 -i 72 -a 0 -x {1.0 5.1 19 ------- null}
- -t 0.07125 -s 1 -d 3 -p cbr -e 210 -c 0 -i 72 -a 0 -x {1.0 5.1 19 ------- null}
h -t 0.07125 -s 1 -d 3 -p cbr -e 210 -c 0 -i 72 -a 0 -x {1.0 5.1 -1 ------- null}
r -t 0.072836 -s 3 -d 5 -p cbr -e 210 -c 0 -i 67 -a 0 -x {1.0 5.1 14 ------- null}
r -t 0.073918 -s 1 -d 3 -p cbr -e 210 -c 0 -i 70 -a 0 -x {1.0 5.1 17 ------- null}
+ -t 0.073918 -s 3 -d 5 -p cbr -e 210 -c 0 -i 70 -a 0 -x {1.0 5.1 17 ------- null}
- -t 0.073918 -s 3 -d 5 -p cbr -e 210 -c 0 -i 70 -a 0 -x {1.0 5.1 17 ------- null}
h -t 0.073918 -s 3 -d 5 -p cbr -e 210 -c 0 -i 70 -a 0 -x {1.0 5.1 -1 ------- null}
+ -t 0.075 -s 1 -d 3 -p cbr -e 210 -c 0 -i 73 -a 0 -x {1.0 5.1 20 ------- null}
- -t 0.075 -s 1 -d 3 -p cbr -e 210 -c 0 -i 73 -a 0 -x {1.0 5.1 20 ------- null}
h -t 0.075 -s 1 -d 3 -p cbr -e 210 -c 0 -i 73 -a 0 -x {1.0 5.1 -1 ------- null}
r -t 0.076586 -s 3 -d 5 -p cbr -e 210 -c 0 -i 68 -a 0 -x {1.0 5.1 15 ------- null}
r -t 0.077668 -s 1 -d 3 -p cbr -e 210 -c 0 -i 71 -a 0 -x {1.0 5.1 18 ------- null}
+ -t 0.077668 -s 3 -d 5 -p cbr -e 210 -c 0 -i 71 -a 0 -x {1.0 5.1 18 ------- null}
- -t 0.077668 -s 3 -d 5 -p cbr -e 210 -c 0 -i 71 -a 0 -x {1.0 5.1 18 ------- null}
h -t 0.077668 -s 3 -d 5 -p cbr -e 210 -c 0 -i 71 -a 0 -x {1.0 5.1 -1 ------- null}
+ -t 0.07875 -s 1 -d 3 -p cbr -e 210 -c 0 -i 74 -a 0 -x {1.0 5.1 21 ------- null}
- -t 0.07875 -s 1 -d 3 -p cbr -e 210 -c 0 -i 74 -a 0 -x {1.0 5.1 21 ------- null}
h -t 0.07875 -s 1 -d 3 -p cbr -e 210 -c 0 -i 74 -a 0 -x {1.0 5.1 -1 ------- null}
r -t 0.080336 -s 3 -d 5 -p cbr -e 210 -c 0 -i 69 -a 0 -x {1.0 5.1 16 ------- null}
r -t 0.081418 -s 1 -d 3 -p cbr -e 210 -c 0 -i 72 -a 0 -x {1.0 5.1 19 ------- null}
+ -t 0.081418 -s 3 -d 5 -p cbr -e 210 -c 0 -i 72 -a 0 -x {1.0 5.1 19 ------- null}
- -t 0.081418 -s 3 -d 5 -p cbr -e 210 -c 0 -i 72 -a 0 -x {1.0 5.1 19 ------- null}
h -t 0.081418 -s 3 -d 5 -p cbr -e 210 -c 0 -i 72 -a 0 -x {1.0 5.1 -1 ------- null}
+ -t 0.0825 -s 1 -d 3 -p cbr -e 210 -c 0 -i 75 -a 0 -x {1.0 5.1 22 ------- null}
- -t 0.0825 -s 1 -d 3 -p cbr -e 210 -c 0 -i 75 -a 0 -x {1.0 5.1 22 ------- null}
h -t 0.0825 -s 1 -d 3 -p cbr -e 210 -c 0 -i 75 -a 0 -x {1.0 5.1 -1 ------- null}
r -t 0.084086 -s 3 -d 5 -p cbr -e 210 -c 0 -i 70 -a 0 -x {1.0 5.1 17 ------- null}
r -t 0.085168 -s 1 -d 3 -p cbr -e 210 -c 0 -i 73 -a 0 -x {1.0 5.1 20 ------- null}
+ -t 0.085168 -s 3 -d 5 -p cbr -e 210 -c 0 -i 73 -a 0 -x {1.0 5.1 20 ------- null}
- -t 0.085168 -s 3 -d 5 -p cbr -e 210 -c 0 -i 73 -a 0 -x {1.0 5.1 20 ------- null}
h -t 0.085168 -s 3 -d 5 -p cbr -e 210 -c 0 -i 73 -a 0 -x {1.0 5.1 -1 ------- null}
+ -t 0.08625 -s 1 -d 3 -p cbr -e 210 -c 0 -i 76 -a 0 -x {1.0 5.1 23 ------- null}
- -t 0.08625 -s 1 -d 3 -p cbr -e 210 -c 0 -i 76 -a 0 -x {1.0 5.1 23 ------- null}
h -t 0.08625 -s 1 -d 3 -p cbr -e 210 -c 0 -i 76 -a 0 -x {1.0 5.1 -1 ------- null}
r -t 0.087836 -s 3 -d 5 -p cbr -e 210 -c 0 -i 71 -a 0 -x {1.0 5.1 18 ------- null}
r -t 0.088918 -s 1 -d 3 -p cbr -e 210 -c 0 -i 74 -a 0 -x {1.0 5.1 21 ------- null}
+ -t 0.088918 -s 3 -d 5 -p cbr -e 210 -c 0 -i 74 -a 0 -x {1.0 5.1 21 ------- null}
- -t 0.088918 -s 3 -d 5 -p cbr -e 210 -c 0 -i 74 -a 0 -x {1.0 5.1 21 ------- null}
h -t 0.088918 -s 3 -d 5 -p cbr -e 210 -c 0 -i 74 -a 0 -x {1.0 5.1 -1 ------- null}
+ -t 0.0900000000000001 -s 1 -d 3 -p cbr -e 210 -c 0 -i 77 -a 0 -x {1.0 5.1 24 ------- null}
- -t 0.0900000000000001 -s 1 -d 3 -p cbr -e 210 -c 0 -i 77 -a 0 -x {1.0 5.1 24 ------- null}